ITEM: TIMESTEP
26000
ITEM: NUMBER OF ATOMS
2835
ITEM: BOX BOUNDS pp pp pp
-3.0039611703393021e+00 7.8003961170339295e+01
-3.0039611703393021e+00 7.8003961170339295e+01
-3.0039611703393021e+00 7.8003961170339295e+01
ITEM: ATOMS id type x y z q
199 3 21.654 10.2436 2.66311 -0.122343
95 3 73.1615 5.27819 -0.0879438 -0.0867708
94 3 72.3058 6.16175 0.202676 -0.0867708
1981 3 9.14246 12.5442 -1.78987 -0.0919577
1980 3 7.94204 12.1958 -1.69751 -0.430591
353 1 7.34963 12.647 -1.74551 0.473181
1959 2 14.9972 16.7759 -0.458703 -0.289212
1961 1 15.0032 16.1338 -1.34447 0.132633
1960 1 14.195 16.6718 0.251401 0.132684
200 3 21.346 10.7669 3.74846 -0.126534
2175 1 52.819 15.3905 -1.64301 0.0696252
290 1 56.1602 13.6278 -1.26794 0.0718433
292 2 55.867 12.0284 -2.78504 -0.259881
293 1 56.9095 11.8999 -3.09096 0.186828
2181 1 56.0497 14.2165 -2.91284 0.0652245
289 2 55.6695 13.4802 -2.22023 -0.0874389
2174 1 54.5078 15.6491 -1.2129 0.0786372
294 1 55.6623 11.281 -2.04077 0.117663
2173 2 53.843 15.1829 -1.97253 -0.093731
286 2 54.0918 13.6397 -2.08644 -0.108072
287 1 53.7681 13.1608 -1.18747 0.0657758
676 1 58.9136 15.8584 3.53401 0.021364
887 1 59.5813 16.1005 3.9535 0.00998957
1962 1 15.6503 17.6079 -0.354608 0.132181
135 1 34.3037 22.8067 -0.569401 0.0659325
2021 1 36.4253 20.717 0.436079 0.14824
130 2 35.467 21.2011 0.249472 -0.159541
447 1 34.6232 20.6119 0.55792 0.124605
133 2 35.3533 22.5685 -0.316301 -0.0621044
2029 1 35.9878 21.8749 -2.35529 0.147408
2085 3 35.6505 18.4925 -1.54033 -0.141309
2026 2 36.2656 22.6661 -1.65291 -0.236549
2028 1 37.3048 22.5247 -1.40486 0.115873
2086 3 36.3295 19.5101 -1.86648 -0.1578
2024 1 35.6567 23.3366 0.428931 0.059364
2027 1 36.1978 23.6382 -2.16705 0.086525
2191 3 54.1981 20.0224 -2.46059 -0.119635
2259 1 6.58893 34.8639 -3.06859 0.134508
2258 1 7.47866 36.3251 -2.62619 0.186502
2260 1 7.85642 34.8488 -1.84844 0.103935
2257 2 7.59195 35.2799 -2.7812 -0.27447
403 3 29.5321 31.7091 1.35895 -0.0911867
503 1 28.2253 36.2175 -1.07978 0.124939
505 1 29.6397 36.7262 -0.0752409 0.0879251
404 3 28.5282 31.5042 2.10546 -0.0906268
504 1 29.8504 35.5772 -1.40672 0.153568
502 2 29.314 36.4815 -1.13073 -0.228509
2401 3 34.0514 37.1584 -1.85663 -0.144303
2397 3 34.5099 33.5838 -1.97883 -0.168846
886 1 44.7968 37.0252 3.07435 0.0499798
2403 3 56.7943 35.1466 -0.933832 -0.132643
2402 3 56.989 36.2203 -1.60966 -0.143755
2461 1 54.3645 31.6098 -2.17581 0.0791807
2460 2 54.1762 32.4604 -2.78258 -0.0434778
614 3 66.829 31.7168 1.50253 -0.0865592
613 3 67.1464 32.37 2.538 -0.087236
336 1 77.4866 33.4554 3.71038 0.0273265
942 3 58.8728 -2.94975 5.03957 -0.0873144
1276 1 63.3844 2.84417 7.71404 0.0511351
60 1 8.73789 7.12677 10.2319 0.0685242
57 1 8.2209 4.96477 9.24322 0.0948967
189 1 22.1699 8.3978 6.93854 0.135302
2076 1 22.7407 8.6346 3.87643 0.169138
185 1 22.0843 7.17347 4.67965 0.102331
187 2 22.728 8.85789 6.13109 -0.261207
184 2 22.4676 8.16 4.81213 -0.137577
190 1 23.7889 8.7026 6.35609 0.176746
188 1 22.4709 9.94577 6.02031 0.155582
837 3 25.0803 7.4793 7.76395 -0.21206
120 1 27.2314 6.15516 9.78534 0.168398
117 1 29.2563 4.73544 8.94435 0.0565665
116 2 29.4157 5.72832 9.34366 -0.0842723
113 2 30.722 5.81603 10.2051 -0.120646
119 2 28.2116 6.13891 10.2828 -0.303833
118 1 29.4655 6.40916 8.48328 0.081904
110 2 31.8329 6.35818 9.2239 -0.0921613
112 1 31.9943 5.60725 8.40356 0.0571409
122 1 28.3697 7.15099 10.6658 0.222977
111 1 31.4981 7.23215 8.70939 0.0812103
109 1 33.9098 7.12001 9.4237 0.0921378
106 2 33.1417 6.61575 10.0367 -0.211917
208 3 39.902 16.2915 4.77673 -0.089321
207 3 41.1421 16.0573 4.8869 -0.0891594
213 1 55.5052 14.4466 9.20687 0.207947
214 1 55.8772 13.2897 7.91836 0.106403
211 2 56.3002 13.7869 8.79515 -0.28355
212 1 56.6087 13.0792 9.54911 0.130212
215 2 57.5063 14.669 8.47548 0.0412276
218 2 58.4011 15.4103 8.14228 -0.00787889
311 3 56.2017 16.6457 10.1236 -0.131719
222 1 59.9015 16.1481 6.78235 0.0675289
221 2 59.5995 16.2796 7.80969 -0.100489
223 1 60.472 16.0192 8.41813 0.0766266
103 3 5.96448 23.8548 6.01695 -0.0868196
2464 1 43.2652 21.8686 7.46187 0.117699
2465 1 42.1416 21.8924 6.10021 0.130765
2466 1 42.9841 23.3857 6.63475 0.117409
2463 2 42.4916 22.4612 6.96173 -0.351778
2357 1 41.6613 22.6311 7.6805 0.120826
278 1 50.9584 24.3517 4.8325 0.119424
227 1 58.8221 17.8768 9.09783 0.149215
226 1 58.3672 18.1057 7.39725 0.117203
224 2 59.1797 17.8069 8.06773 -0.236178
225 1 60.0031 18.4819 7.88768 0.0852985
304 3 66.7604 20.3595 9.96631 -0.364059
910 1 66.1101 20.3851 10.5162 0.410409
305 3 68.0131 20.2992 9.98449 -0.0662839
102 3 5.10826 24.7101 6.38037 -0.0867422
508 3 34.4746 30.423 7.3338 -0.0750106
275 2 51.9868 24.7018 5.06845 -0.264842
277 1 52.5415 25.239 4.28865 0.122629
276 1 52.2648 24.8553 6.10668 0.126386
127 2 20.3267 37.4679 8.94587 -0.0526599
438 2 20.421 36.3779 9.40623 -0.0529181
439 1 20.4807 35.3916 9.83041 0.0904563
429 1 33.7125 36.5734 6.82817 0.0657627
509 3 34.7874 31.6377 7.16399 -0.124272
425 2 34.6871 36.3903 8.80182 -0.108855
433 1 36.4117 35.0699 7.22741 0.0778228
428 2 34.7256 36.5176 7.24183 -0.104307
436 1 34.7206 35.5742 4.62757 0.106147
431 2 35.4532 35.237 6.68513 -0.122421
434 2 35.6916 35.4933 5.15772 -0.226819
435 1 36.28 34.6809 4.73809 0.115338
437 1 36.2429 36.4129 5.02744 0.0939459
432 1 34.8825 34.3171 6.8158 0.130011
427 1 34.141 35.5063 9.09501 0.10616
426 1 35.7151 36.2664 9.17178 0.0688006
525 3 52.3788 31.327 8.96274 -0.0874345
524 3 52.333 32.3953 9.65455 -0.092363
527 1 63.3609 36.9032 8.57736 0.0916408
529 1 65.0844 36.7412 9.0362 0.0885225
526 2 64.2419 37.4453 8.89021 -0.205429
335 1 77.1413 32.6894 3.82487 0.027332
715 1 0.961255 2.85617 15.354 0.152896
712 2 0.573892 2.04832 15.9573 -0.287652
714 1 0.581481 2.10708 17.0575 0.190119
713 1 0.285407 1.11899 15.4984 0.137541
315 3 -1.20913 3.44212 17.2443 -0.13303
53 1 16.6019 3.92212 15.7893 0.123806
17 1 27.0484 0.381006 10.5745 0.0871898
13 1 27.6124 0.644779 13.1828 0.0918428
12 1 25.8221 0.963113 13.3883 0.0921927
11 2 26.6665 0.845005 12.731 -0.133043
15 1 25.4664 1.1578 10.896 0.087553
14 2 26.5261 1.10133 11.2305 -0.178953
16 1 26.9553 2.09621 10.9845 0.0707383
828 3 49.0405 -2.29987 11.4524 -0.0870786
827 3 48.2135 -1.41631 11.8154 -0.0866506
58 1 8.09571 4.17817 10.9015 0.0880829
56 2 8.37564 5.02383 10.3011 -0.154471
61 1 8.4717 6.53507 11.8809 0.0659566
59 2 8.96331 6.27302 10.9047 -0.0925869
67 1 10.7752 6.46285 13.3363 0.118729
68 1 9.94426 4.90705 12.8915 0.0916132
64 1 10.9119 5.40993 10.4103 0.0782728
62 2 10.5506 6.10494 11.1538 -0.105983
63 1 11.1248 7.02529 10.9416 0.091689
65 2 10.7567 5.64647 12.6146 -0.231865
97 3 14.4218 4.22696 15.0697 -0.117499
99 3 14.5936 10.0254 12.5356 -0.0860084
66 1 11.7385 5.1428 12.6933 0.143414
96 3 14.4618 4.24294 16.3533 -0.139996
55 1 16.3973 5.46119 15.5418 0.127085
52 2 15.996 4.68661 16.0941 -0.0993152
54 1 16.1413 4.95322 17.1719 0.0962706
150 2 19.9914 6.39131 16.2734 -0.0315774
151 1 21.2907 6.31663 14.6361 0.158105
153 2 20.3218 6.07445 15.0378 -0.183998
154 1 19.6306 5.48499 14.4167 0.139274
105 3 17.6803 5.02393 11.7746 -0.104126
104 3 16.9256 5.42905 12.7075 -0.108969
47 1 20.3317 9.19492 16.4231 0.115247
93 3 24.3333 8.50705 15.0872 -0.155636
92 3 23.3821 8.67173 14.2752 -0.11841
1133 1 26.862 8.78402 14.9467 0.204575
1132 2 27.1733 8.58287 15.986 -0.279117
1135 1 26.3733 8.03921 16.4762 0.153729
1129 2 27.4779 9.93856 16.7284 -0.074542
1134 1 28.0666 7.9569 15.8983 0.115154
193 3 27.4621 7.00107 12.7214 -0.214834
121 1 28.1293 5.45937 11.1248 0.150271
108 1 33.5707 5.64551 10.3574 0.0881418
204 3 29.047 9.88316 10.8093 -0.16791
114 1 30.9956 4.87129 10.6294 0.0631718
115 1 30.5725 6.4857 11.0494 0.0898409
107 1 32.9329 7.23395 10.9087 0.102326
1130 1 28.206 10.5646 16.2054 0.0669055
98 3 13.8928 11.026 12.1787 -0.0936567
186 1 26.5723 10.5883 16.8869 0.0494892
156 1 25.3923 11.063 16.3433 0.049628
310 3 55.1203 16.1131 10.5149 -0.133806
302 3 -2.98182 20.1618 16.0731 -0.135888
4 1 8.48912 17.7205 14.4791 0.0878293
3 1 7.70468 19.1826 14.9923 0.103286
7 1 9.14857 19.9252 13.1826 0.0753666
1 2 8.65739 18.7124 14.936 -0.21051
2 1 9.09184 18.5489 15.9585 0.0911526
10 1 10.4573 20.4969 15.9863 0.0870239
9 1 10.1579 21.7143 14.738 0.0922552
8 2 10.0643 20.681 15.012 -0.145569
5 2 9.6371 19.5854 14.0564 -0.0864201
6 1 10.5161 18.9953 13.7661 0.0750664
1525 1 26.6416 19.2075 12.2243 0.0449603
137 1 27.8786 22.7955 17.1082 0.111691
139 1 29.3091 23.7339 16.9778 0.0884891
143 1 33.0063 23.5892 12.3097 0.0799108
252 2 52.5281 17.9964 16.3337 -0.170684
253 1 51.4564 17.8667 16.2268 0.140186
246 1 52.5498 20.7547 16.8737 0.097018
254 1 53.1023 17.6338 15.5202 0.106262
313 3 67.0858 23.7893 12.0514 -0.0926669
303 3 76.9456 19.5667 15.7761 -0.102979
517 3 25.6725 28.016 16.0799 -0.127732
516 3 26.3566 27.0625 16.6061 -0.110183
142 1 32.8369 24.9027 13.1968 0.101041
205 3 33.3462 26.5928 11.1487 -0.106221
206 3 33.9884 25.6813 11.7175 -0.13065
140 2 32.8813 24.5657 12.1566 -0.0984588
141 1 31.8829 24.8099 11.6945 0.114161
477 1 31.0626 30.4159 15.409 0.0783267
611 3 47.7246 26.2537 14.834 -0.307102
583 1 47.043 25.5383 14.8591 0.327199
612 3 48.9953 25.7845 15.5235 -0.147858
621 3 65.5799 29.8304 16.1646 -0.101538
312 3 67.8974 24.7066 11.7304 -0.0798923
622 3 66.3943 30.4194 16.9284 -0.105139
630 3 -2.5502 32.0432 17.0001 -0.123991
629 3 -2.44769 31.679 15.7918 -0.100951
366 1 -2.4568 35.4211 16.266 0.149889
370 1 10.5161 34.7515 15.5752 0.111136
367 2 11.4888 34.7878 16.1163 -0.221926
368 1 11.7433 35.8754 16.1714 0.107204
369 1 12.2317 34.2839 15.5057 0.0957181
506 3 21.1231 36.6445 16.4581 -0.14902
331 1 24.807 30.6319 16.0102 0.180471
330 1 24.4635 32.4995 16.0097 0.129819
329 2 24.9882 31.6137 16.4327 -0.321357
419 3 28.0839 36.6921 16.5393 -0.132426
420 3 27.6304 35.5307 16.764 -0.164569
488 1 27.5139 32.9186 14.3453 0.141397
485 2 28.0289 32.3413 15.094 -0.270033
486 1 27.3176 31.6501 15.5041 0.108726
484 1 29.0826 30.8333 13.8472 0.0720484
520 3 30.811 33.8818 11.6904 -0.132799
521 3 29.6425 33.7159 11.2286 -0.107834
481 1 31.06 32.4695 13.5875 0.162616
476 2 30.4488 31.2854 15.5688 -0.130095
482 2 29.2905 31.6109 14.643 0.0136477
479 2 30.4965 32.4955 14.5371 -0.16322
480 1 30.4691 33.5047 15.0142 0.133896
478 1 30.2425 31.4761 16.6265 0.0710773
487 1 28.268 33.0858 15.8768 0.1378
460 1 46.8144 35.5133 15.1566 0.0625098
567 2 47.372 35.2133 13.0369 -0.102231
569 1 47.96 34.3816 12.9981 0.089717
568 1 47.5292 35.8524 11.4124 0.0276085
575 1 47.7504 35.6749 10.5963 0.0278405
562 1 49.2874 37.0383 13.9344 0.151239
560 2 48.7819 36.4935 14.7193 -0.253454
561 1 49.4463 35.6511 15.021 0.0998362
563 1 48.6885 37.1865 15.5793 0.147983
564 2 47.2944 36.0663 14.2711 -0.0851056
566 1 46.6451 36.9128 14.0416 0.0816578
580 1 65.5839 33.0359 16.0917 0.174332
579 1 66.0557 34.8151 15.656 0.0683975
578 1 67.2 34.639 16.4321 0.0671253
582 1 66.0377 32.6258 13.2465 0.0939072
581 2 66.092 33.3271 14.0546 -0.0470292
577 2 65.9428 33.7311 15.3287 -0.148864
357 2 76.3267 35.4217 16.206 -0.0883121
360 2 76.1882 36.6688 15.3872 -0.162776
363 2 77.7362 35.5531 16.9811 -0.260734
572 1 76.9749 37.3671 15.1963 0.168215
359 1 76.2657 34.5026 15.5924 0.102911
361 1 75.235 36.958 14.9889 0.123877
161 2 39.3746 3.22299 23.5084 -0.0956654
162 1 39.247 3.11576 22.4166 0.0569447
163 1 38.4709 3.69556 23.9413 0.112474
160 1 38.7419 1.09559 23.8858 0.095357
911 1 55.5848 3.24238 20.3297 0.0922837
280 1 64.8014 3.90553 22.7367 0.171844
1172 1 65.6433 -2.01092 23.7683 0.0874895
279 2 64.7496 3.18748 23.561 -0.31082
265 1 69.8112 3.69024 23.3799 0.160606
307 3 67.9259 2.64191 23.7143 -0.264862
1168 1 67.2319 -0.433454 22.5899 0.103871
268 1 70.348 3.77508 20.7827 0.0865122
1166 2 67.1999 -0.49185 23.6669 -0.151722
314 3 -2.2255 3.84625 17.8712 -0.0888123
149 1 19.7852 6.67606 17.3825 0.0705469
146 1 22.0145 8.98478 16.9616 0.153335
144 2 20.9538 8.74651 17.2278 -0.239457
147 2 20.8143 7.1657 17.3052 -0.0955827
40 1 20.6925 9.21234 18.1701 0.109376
148 1 21.5319 6.65288 17.9279 0.0826601
191 3 24.9285 9.93601 20.8475 -0.131104
1128 1 27.4211 8.67378 18.5426 0.0791787
175 1 27.6414 9.73416 20.9139 0.154767
1126 2 28.0751 9.45055 18.1019 -0.114114
1127 1 29.0175 8.97233 17.9678 0.0610039
176 1 29.3368 9.69389 20.5412 0.0836214
174 2 28.4535 10.3439 20.4795 -0.231368
167 2 40.098 5.52954 23.2932 -0.0905561
164 2 40.6121 4.13455 23.8505 -0.163688
169 1 39.4526 5.31292 22.4585 0.057817
171 1 41.1106 7.47834 22.6766 0.0840278
170 2 41.3454 6.41508 22.8962 -0.235143
173 1 41.9041 6.06483 21.9966 0.123773
166 1 41.4671 3.82591 23.2694 0.13217
203 3 43.8786 4.65099 23.415 -0.201884
172 1 42.0383 6.44558 23.7566 0.149962
2150 1 51.0772 7.53274 17.8235 0.120095
2148 2 50.8445 7.75954 18.866 -0.309897
2151 1 50.9444 8.76836 19.2159 0.180851
2149 1 51.0833 7.00325 19.5878 0.208624
210 3 50.7547 8.00903 21.7172 -0.146087
209 3 51.7503 7.58642 22.3354 -0.125124
306 3 55.093 4.26747 21.908 -0.202612
909 2 55.4189 4.20628 20.6345 0.0264407
912 1 55.7307 4.9992 20.0728 0.083645
309 3 61.1773 5.01293 21.8461 -0.102766
308 3 60.5937 4.25125 22.6634 -0.098571
262 2 69.816 4.61339 22.8174 -0.237398
264 1 68.7106 4.84944 22.7273 0.122871
263 1 70.2195 5.27479 23.5549 0.0999289
270 1 69.0265 6.19703 20.4837 0.0603708
271 1 70.651 7.88076 20.0733 0.0977441
272 2 70.9238 6.89586 20.3554 -0.157894
269 2 70.0647 5.92355 20.7059 -0.028232
266 2 70.5751 4.619 21.4226 -0.098945
267 1 71.6651 4.69021 21.6308 0.0723407
274 1 72.0023 6.6851 20.3674 0.0920052
1029 1 2.47789 12.1366 20.2275 0.0858879
1022 1 0.28417 12.1822 21.8293 0.0578628
1030 1 1.62563 13.6203 19.7382 0.0954144
1027 2 2.39073 13.2045 20.4123 -0.208046
44 1 -2.00469 16.5409 18.2034 0.0743934
87 3 2.91149 17.3634 20.4601 -0.1578
46 1 -0.560797 15.6817 20.832 0.125108
257 1 0.0578965 15.3067 19.2863 0.0771753
45 2 -0.885994 15.5042 19.7985 -0.111621
42 2 -1.63972 16.7652 19.2091 -0.114766
86 3 2.43833 16.1958 20.6609 -0.174281
1023 1 -0.0629517 13.8958 21.647 0.0514511
1021 2 0.571041 13.1679 22.189 -0.0858416
1024 2 2.09775 13.4291 21.9414 -0.130971
81 1 2.32899 14.4382 22.2238 0.115444
48 2 -1.82869 14.237 19.7399 -0.197488
49 1 -1.38177 13.3744 20.2329 0.0523358
969 1 3.39589 15.7822 23.2041 0.0778018
51 1 -2.07092 13.9314 18.7087 0.0776827
50 1 -2.76764 14.3721 20.2395 0.0922529
43 1 -2.51438 17.0928 19.7601 0.131845
1025 1 2.76079 12.7591 22.5375 0.123505
73 2 0.305712 13.26 23.7467 -0.13173
70 1 -1.8897 13.2972 23.519 0.114892
74 1 0.290564 14.2855 24.1 0.0940161
71 1 -1.2704 11.6442 23.7318 0.139044
967 2 4.27773 16.1515 23.6839 -0.0250875
1490 1 5.70614 14.7269 22.7874 0.111541
1028 1 3.35586 13.6825 20.1987 0.124058
1278 2 5.50112 15.2158 23.7344 -0.244851
1491 1 6.43387 15.753 23.9656 0.089577
192 3 25.1528 11.0795 21.3472 -0.116551
179 1 27.1931 11.2226 18.9373 0.109447
180 1 28.8598 11.4848 18.6075 0.0590734
178 2 28.1283 10.7494 18.9851 -0.102977
177 1 28.6324 11.2121 21.1308 0.118854
250 1 0.390094 17.5914 18.767 0.111407
39 2 -0.538875 17.9214 19.2096 -0.129899
41 1 -0.258656 18.2756 20.2051 0.167196
36 1 -1.32682 18.8505 17.3617 0.15752
35 2 -1.25165 19.0635 18.4163 -0.260637
38 1 -0.760893 20.0122 18.5017 0.121473
37 1 -2.2773 19.2121 18.8181 0.147312
100 3 -2.0135 17.9157 21.7957 -0.155756
101 3 -1.21908 17.5722 22.7264 -0.130798
29 1 4.05553 18.2532 22.188 0.159026
33 1 3.49232 19.9812 24.0474 0.0962633
975 1 5.70722 18.239 22.6983 0.0790992
973 2 4.69939 18.3724 23.045 -0.131802
31 2 4.51204 19.7848 23.6514 -0.201507
32 1 4.67654 20.5227 22.8498 0.0896476
196 3 28.1053 23.6937 21.3206 -0.119795
195 3 28.6848 22.5884 21.5345 -0.139983
134 1 28.9337 21.2924 18.8785 0.106895
138 1 28.3518 23.8 18.4965 0.166
1078 2 29.5643 21.9562 18.3075 -0.0956032
131 1 30.3698 23.198 20.03 0.146318
1075 2 30.7093 22.572 19.2044 -0.127826
136 2 28.7236 23.1425 17.6825 -0.241819
1080 1 29.9914 21.4055 17.5009 0.0542516
1072 2 31.6309 21.4367 19.837 -0.105091
1074 1 31.087 21.0015 20.6783 0.104279
1073 1 31.8252 20.6417 19.1141 0.0674306
1392 1 31.2918 23.2422 18.5697 0.0579309
1383 2 32.9364 22.1437 20.3492 -0.202973
1281 1 33.6633 21.3955 20.7555 0.0852896
1280 1 32.7234 22.8389 21.1589 0.1009
1384 1 33.4624 22.6407 19.5113 0.0806508
247 1 51.5686 20.2037 18.2287 0.187406
251 1 53.0894 18.0874 18.3998 0.134561
197 3 50.2782 17.784 18.7259 -0.12527
198 3 50.6364 18.7205 19.4992 -0.135737
245 2 52.5774 20.1884 17.8215 -0.256691
248 1 53.185 20.7342 18.5326 0.119742
249 2 53.1616 18.7197 17.5008 -0.0801465
145 1 54.2299 18.8284 17.299 0.0598266
300 3 54.8057 21.514 23.4186 -0.115503
779 1 29.5871 29.4254 18.6878 0.0381747
474 1 40.3406 26.5557 21.3556 0.144291
475 1 42.1138 26.8861 21.7347 0.183452
472 2 41.2466 27.0171 21.0727 -0.299828
473 1 41.1714 27.9551 20.519 0.128268
584 2 49.4149 30.0784 19.7275 -0.147723
592 1 48.6091 28.9901 17.3998 0.119312
593 1 50.3252 28.5903 17.5746 0.124775
590 2 49.3217 28.3471 17.9399 -0.254499
591 1 49.0749 27.322 17.6923 0.156919
587 2 49.1014 28.6113 19.5153 -0.0824492
589 1 49.7429 28.004 20.1634 0.0764537
588 1 48.0897 28.3443 19.7691 0.0741506
364 1 -3.21863 36.5173 17.4561 0.130017
1345 1 -1.7011 35.703 21.0107 0.0799658
1343 1 -0.0453502 36.0131 21.4637 0.0985124
1344 1 -1.37413 36.1908 22.6233 0.067205
1342 2 -1.0832 36.3652 21.569 -0.204563
365 1 -3.17256 34.8051 17.7528 0.131104
1348 3 4.19505 35.384 22.9886 -0.150175
1349 3 5.3123 35.9248 23.1419 -0.102375
411 3 15.3824 36.8816 20.0308 -0.155112
381 1 12.9285 35.1505 21.8832 0.136667
377 2 12.1949 34.3568 19.9229 -0.0875986
378 1 12.332 33.2975 20.0821 0.0576233
379 1 11.1473 34.5761 20.1555 0.078539
380 2 13.1414 35.2703 20.7958 -0.304812
373 1 11.2597 33.074 17.4953 0.0609293
382 1 14.1738 35.0053 20.7116 0.171003
383 1 13.038 36.305 20.5361 0.220175
372 1 10.3289 34.4461 18.0013 0.0680253
371 2 11.2782 34.1732 17.5563 -0.0947522
374 2 12.4907 34.6793 18.4059 -0.113503
375 1 13.4218 34.1852 18.0916 0.0734894
376 1 12.6374 35.7597 18.2871 0.0675821
507 3 21.1084 36.303 17.6761 -0.124045
332 1 25.3445 31.7105 17.4124 0.14338
471 1 24.8458 37.3618 18.9366 0.105728
470 1 25.7628 36.9706 17.5454 0.178812
585 1 49.6927 30.75 18.9432 0.0797299
586 1 49.2793 30.5741 20.661 0.0923023
1284 1 67.9132 31.6585 20.619 0.324742
623 3 66.9042 33.0849 19.464 -0.11444
624 3 68.018 32.6116 20.2392 -0.282795
358 1 75.5274 35.3665 16.9264 0.112382
1338 1 77.6932 37.5436 20.4061 0.0788626
158 1 40.4777 1.35772 23.7647 0.0889413
157 2 39.5627 1.79657 24.1167 -0.216464
159 1 39.6696 1.74098 25.2306 0.119509
1690 1 35.3161 0.355838 30.1881 0.0663004
201 3 37.1626 3.31344 26.9912 -0.112479
281 1 63.8334 3.08738 24.1571 0.159463
282 1 65.6071 2.62253 23.9446 0.17571
1170 1 66.7481 -2.00804 25.1609 0.0927837
1171 1 65.5127 -0.733172 25.0051 0.0831586
1167 1 67.8832 0.166286 24.1549 0.1383
1169 2 66.2217 -1.35261 24.4411 -0.18436
1151 3 10.4528 9.765 29.2032 -0.138353
1034 3 26.3151 4.8742 30.2034 -0.20921
1033 3 27.3321 5.48083 29.3795 -0.115929
155 1 26.9161 4.90777 31.3315 0.240148
168 1 39.4596 6.05518 24.0185 0.0891524
202 3 37.2115 4.54474 26.6847 -0.105136
165 1 40.8249 4.15127 24.91 0.136658
1139 3 41.1776 5.75428 30.2849 -0.0839101
1138 3 41.7652 5.60181 29.1502 -0.0904551
260 1 52.4683 9.24917 26.9146 0.0739518
258 2 52.415 8.53123 26.0272 -0.196298
152 1 50.6126 9.49309 25.039 0.132152
255 2 51.0923 8.55059 25.2996 -0.147778
256 1 50.4883 7.72899 25.2931 0.152376
259 1 52.9547 9.11371 25.1936 0.112044
261 1 52.8147 7.55914 26.1895 0.118148
1040 3 77.5689 9.97769 25.2966 -0.105691
69 2 -1.14146 12.7098 24.0426 -0.251114
72 1 -1.33564 12.7731 25.1282 0.1517
75 1 1.02551 12.6902 24.3255 0.131567
1279 1 5.33006 14.4084 24.5271 0.163539
91 3 4.30672 12.4845 24.9288 -0.149736
90 3 3.32554 11.7059 24.6998 -0.139891
1250 3 48.9014 11.5443 28.8348 -0.115176
1249 3 49.0559 10.5182 28.1069 -0.123391
1238 1 51.4727 12.3055 28.4351 0.151201
1237 2 52.355 12.7248 28.9681 -0.231674
1239 1 52.079 13.0815 29.9771 0.11264
1240 1 52.6546 13.625 28.3852 0.0868612
1235 1 53.1359 10.7966 29.6176 0.0763228
291 1 53.7527 11.328 28.1086 0.052487
1233 1 55.0382 13.2845 29.2634 0.0729438
1231 2 54.8223 12.3536 29.7408 -0.0959864
1232 1 54.6478 12.6307 30.7801 0.0644419
1234 2 53.494 11.684 29.0579 -0.0892447
284 1 56.457 11.0223 30.5289 0.0927651
283 2 55.9304 11.3461 29.6431 -0.144749
285 1 56.3126 10.9635 28.7086 0.082995
1039 3 77.8806 10.929 26.0817 -0.121461
26 1 3.36669 17.5189 24.6978 0.0801467
970 2 4.31353 17.2635 24.2143 -0.108831
34 1 5.24742 20.0189 24.4247 0.082416
1287 1 5.09198 17.2915 25.0077 0.0659851
1365 3 13.8573 17.9286 28.0434 -0.136378
467 1 51.0574 21.6003 25.5924 0.128595
242 1 52.6792 23.2039 30.2366 0.083868
570 2 51.1549 22.4424 26.2451 -0.132739
571 1 50.4023 22.5717 27.0365 0.0939002
576 1 52.806 23.3473 25.2685 0.141222
573 2 52.0733 23.4085 26.0672 -0.141052
301 3 53.8949 21.195 24.2278 -0.136318
1489 1 56.7682 23.246 25.9139 0.114812
1386 1 57.8436 21.8678 26.07 0.1155
1497 1 54.8797 23.6696 27.3574 0.0589936
1178 1 55.5613 21.2392 27.01 0.107073
241 2 53.5082 23.6119 29.6215 -0.199978
1185 1 54.0144 21.5517 28.9249 0.0598775
1183 2 54.5383 22.4875 29.2603 -0.0878547
239 1 55.1412 22.1769 30.1239 0.0658137
236 1 56.0611 23.9093 28.5435 0.0626831
1180 2 55.413 23.1501 28.1416 -0.10108
1179 1 56.6526 21.3034 28.3285 0.0682557
1177 2 56.213 21.917 27.5671 -0.1048
1488 2 57.2693 22.5997 26.6325 -0.217256
1385 1 57.9484 23.2424 27.2427 0.0824633
1275 1 6.47482 30.436 26.5144 0.092372
519 3 44.2429 27.0447 24.1593 -0.14845
518 3 43.1221 26.6984 24.6404 -0.135242
483 1 44.6665 27.9132 25.7931 0.1997
574 1 52.1004 24.2466 26.7107 0.0872972
1453 3 48.1325 26.6159 26.6467 -0.101156
1454 3 47.8707 27.6595 27.2922 -0.101488
244 1 53.0226 23.9732 28.7299 0.0773
243 1 53.9621 24.456 30.1898 0.0879324
1264 1 1.31985 34.7879 25.6053 0.103203
1262 1 2.76794 35.2485 26.5381 0.184412
1261 2 2.38683 34.6847 25.6398 -0.291311
1263 1 2.78899 35.1713 24.7575 0.186071
1266 1 2.36739 32.6772 26.5133 0.0624665
1265 2 2.83613 33.1717 25.6243 -0.0687363
1267 1 2.47203 32.6175 24.7365 0.0666334
1575 3 3.53387 36.2812 28.8854 -0.116392
1574 3 3.84343 36.9939 27.8801 -0.119244
1273 1 4.17392 31.336 26.9821 0.0587625
1271 2 4.85913 31.8092 26.2875 -0.0255395
1274 2 6.13649 31.3958 26.1159 -0.153816
1268 2 4.41875 33.1529 25.7119 -0.167358
1269 1 4.89708 33.3257 24.7485 0.138763
1277 1 6.8116 31.9041 25.421 0.0950918
1270 1 4.73739 33.9579 26.378 0.132581
1380 1 29.6447 33.7262 30.253 0.0933198
721 3 3.22663 -2.33471 31.5605 -0.0935734
1247 3 -1.78025 9.30968 34.1259 -0.0889951
1248 3 -1.72781 8.29917 34.8855 -0.0993723
1071 1 45.7615 6.24258 36.4214 0.196062
1070 1 44.81 7.86168 36.1942 0.132595
1173 2 45.666 7.33841 36.5565 -0.292992
1174 1 46.2901 7.82743 37.3188 0.133158
1155 3 48.0188 5.02522 35.4916 -0.113227
1154 3 47.4306 3.90179 35.5111 -0.102311
955 1 9.73733 12.8503 36.4403 0.069318
962 1 10.2628 14.1184 34.2636 0.0973043
961 1 11.6602 12.9917 34.1412 0.0989094
954 1 11.1993 11.898 36.4289 0.0704799
960 1 11.8809 14.7802 34.0697 0.105167
959 2 11.3138 13.9861 34.5216 -0.223489
957 1 12.608 13.9474 36.3373 0.0638441
956 2 11.5372 14.0554 36.0767 -0.0906584
958 1 11.2309 15.0093 36.533 0.0622228
953 2 10.7739 12.8369 36.7549 -0.119323
1158 1 51.9964 14.1371 37.27 0.125939
1164 1 50.2584 13.599 37.2568 0.12107
1163 2 51.2965 13.3352 36.9691 -0.379389
1162 1 51.5784 12.3477 37.4335 0.215925
1165 1 51.3105 13.2561 35.8425 0.111432
1161 1 52.9696 11.1435 37.1032 0.0975652
1272 1 23.1764 22.4489 35.182 0.0501643
2177 1 68.6843 21.289 37.0859 0.107389
1228 2 69.1534 23.186 36.3409 -0.0132192
1227 1 68.1866 24.3242 34.624 0.0981547
2178 1 67.3208 22.1829 36.5624 0.0983202
2176 2 68.3782 22.1227 36.5963 -0.170932
1229 1 70.1912 23.2381 36.4542 0.0658777
1224 2 68.6394 24.4755 35.6518 -0.220275
1226 1 69.3913 25.2373 35.6722 0.0997276
1225 1 67.7709 24.8396 36.2729 0.0911448
1369 1 27.4806 34.8335 36.4272 0.130235
1379 2 29.9397 34.2384 31.1661 -0.255567
1381 1 29.5089 35.2346 31.1426 0.160392
1459 3 31.7959 36.4837 31.7395 -0.167094
1382 1 31.0323 34.3373 31.1398 0.157228
1378 1 29.9252 32.5443 32.6563 0.0709514
1367 1 29.3325 34.7555 36.556 0.162684
1366 2 28.4466 34.9057 35.9537 -0.27685
1368 1 28.5677 35.7128 35.1903 0.14906
1374 1 30.6395 34.8375 33.9147 0.111018
1370 2 28.5675 34.8574 34.4304 -0.0500946
1377 1 28.4083 33.3011 32.4042 0.0827223
1376 2 29.4318 33.5256 32.4964 -0.09317
1373 2 29.6404 34.55 33.6205 -0.0605342
1479 1 63.4614 36.9187 35.5568 0.0978202
1473 1 61.5047 36.9188 33.8308 0.0984193
1572 3 66.578 35.6241 36.7435 -0.112249
1573 3 67.1719 36.0358 35.7047 -0.104937
1823 1 62.7536 0.711552 41.5583 0.182102
1821 1 62.9757 2.56588 41.4609 0.146994
1822 1 62.7053 1.76336 43.1107 0.110645
1820 2 62.878 1.6731 42.0369 -0.30863
1241 3 63.3568 -1.45015 43.205 -0.173414
1242 3 63.4624 -2.68873 42.9678 -0.102757
1221 1 65.275 1.34171 43.1749 0.11234
1220 2 65.2688 1.40456 44.283 -0.236022
983 1 0.432205 8.67623 38.4517 0.149853
984 2 -0.263344 9.12673 40.4483 -0.113868
980 2 0.758413 9.20288 39.3581 -0.274876
982 1 1.70896 8.81604 39.6884 0.202579
981 1 1.03486 10.2726 39.0797 0.147751
986 1 -1.05167 8.42245 40.3688 0.074858
1195 1 -0.227023 9.71296 41.3484 0.0635787
1259 3 3.76839 9.38027 38.4293 -0.11363
1260 3 3.66989 9.86105 39.5981 -0.134946
1044 3 6.1385 5.58137 40.0919 -0.11099
1845 1 5.41923 4.0988 39.6757 0.446861
1043 3 5.99571 4.51262 39.3026 -0.38755
1047 3 10.8218 9.03273 41.7712 -0.102508
1048 3 11.8858 9.47739 41.2523 -0.115458
1145 3 24.0198 5.94833 40.0509 -0.0866952
1144 3 24.8282 6.06619 41.0391 -0.0880958
1159 1 52.0951 9.54764 38.787 0.0922795
1244 3 65.9642 4.50319 39.0498 -0.10411
1243 3 66.3825 5.60143 38.5554 -0.0852633
995 1 75.9249 9.39849 43.43 0.0796661
988 1 72.2178 10.6305 44.2609 0.0905378
977 1 -1.14542 14.544 41.4731 0.156658
976 2 -1.99319 13.9287 41.2494 -0.310371
978 1 -2.87211 14.4297 40.8978 0.191832
979 1 -2.08562 12.9662 41.7178 0.128753
947 1 8.87277 11.9832 38.7315 0.112219
948 1 10.2523 10.8841 38.7846 0.150768
949 1 9.9577 12.0323 40.1046 0.141401
946 2 9.9411 11.9081 39.0199 -0.257198
951 1 10.5504 13.9886 38.5756 0.0620167
950 2 10.8629 12.9838 38.3228 -0.0960041
952 1 11.8716 12.8835 38.6959 0.0824979
1156 2 51.6113 10.5204 38.5976 -0.109653
1157 1 50.7195 10.7434 39.1263 0.0787475
1160 2 52.057 11.3549 37.6497 -0.184951
1045 3 77.032 15.3758 42.8644 -0.134272
1046 3 77.1059 16.2032 43.7939 -0.0953511
987 2 73.2733 10.6009 44.2655 -0.15431
989 1 73.7433 11.4902 43.8494 0.10026
1182 1 2.5816 21.9292 38.7994 0.0487327
1153 3 30.6188 23.3482 40.8865 -0.127511
1079 1 31.7069 24.0376 42.9935 0.157356
1036 3 7.33694 28.3032 39.3116 -0.100867
1019 1 6.03717 28.8045 38.1597 0.373868
1035 3 6.76877 29.1135 38.5718 -0.33244
1152 3 30.9016 24.4422 40.3079 -0.110251
2020 2 30.1986 25.2611 43.7746 -0.155169
1076 1 30.134 25.9785 42.9133 0.125563
2023 2 30.9711 24.1796 43.7534 -0.0266632
1571 3 40.8697 28.278 43.602 -0.135066
1258 3 61.4018 25.9828 43.4209 -0.142913
1529 2 63.172 29.9153 43.4766 -0.146744
1530 1 63.9198 29.1867 43.6879 0.105588
1257 3 60.8978 26.3227 42.3095 -0.110853
1531 1 62.3721 29.6067 42.8246 0.155469
1310 1 0.309983 36.7673 41.64 0.169315
1306 1 1.89787 36.756 43.7573 0.0591861
1562 3 0.30815 36.5664 39.1463 -0.141952
1563 3 -0.982366 36.6217 38.878 -0.222936
1303 1 -0.751761 36.8666 44.0857 0.0767132
968 1 -1.54524 36.4795 37.7101 0.221714
1466 3 31.4366 34.3303 39.5201 -0.10172
1465 3 31.3271 33.0873 39.4055 -0.0969888
1405 1 48.3998 37.1657 41.3274 0.0562136
1567 3 58.8986 30.8495 43.5089 -0.12491
1484 2 63.7811 37.3099 38.1468 -0.242255
1527 1 63.2246 32.0778 42.6466 0.111195
1526 2 63.6805 31.3951 43.3843 -0.122085
1528 1 64.7316 31.5801 43.5939 0.10953
1566 3 59.6318 31.5844 42.7711 -0.117576
1486 1 63.8122 36.2532 37.8766 0.131524
1569 3 68.2791 33.3119 40.9864 -0.0776917
1568 3 67.1189 33.1148 41.4491 -0.110838
2733 1 5.14676 3.98241 48.4097 0.0198013
2734 1 4.69593 3.46146 47.9354 0.0103251
997 2 8.98108 2.45934 48.1256 -0.202271
1000 1 8.19662 1.99796 48.7417 0.0961175
999 1 9.93216 1.97332 48.422 0.0874022
998 1 8.73832 2.21025 47.0868 0.0789971
1009 1 10.132 3.70318 45.8842 0.0635462
1147 3 34.0825 2.47861 48.1427 -0.139804
1146 3 34.5871 3.47511 48.7337 -0.157418
1049 3 40.6894 -1.01629 44.6764 -0.0959222
1052 1 37.8391 -0.401135 48.3009 0.098093
1053 1 36.2126 0.220136 48.5655 0.118418
1062 1 37.6338 1.47821 50.3109 0.0667697
1061 2 37.9486 2.39892 49.8625 -0.109074
1064 2 39.0571 3.12602 50.7169 -0.208121
1051 2 37.0261 0.176289 47.8429 -0.220572
1066 1 39.862 2.45634 50.9183 0.0843396
1054 1 36.6848 -0.334209 46.9347 0.113493
1059 1 39.4315 1.49451 48.495 0.0879355
1055 2 37.521 1.61197 47.4396 -0.13679
1058 2 38.5865 2.14843 48.4303 -0.118446
1057 1 36.6829 2.31805 47.3672 0.164902
1056 1 37.9896 1.58536 46.4568 0.119882
1063 1 37.0038 2.97137 49.8227 0.126208
1060 1 38.9966 3.09099 48.0691 0.103024
1050 3 40.8712 0.0636061 45.2629 -0.113764
1214 2 64.5891 0.355779 46.5265 -0.151996
1217 2 64.4919 0.218343 44.9456 -0.124285
1212 1 63.8084 -1.68671 46.7948 0.0897293
1219 1 64.8854 -0.805148 44.6179 0.139845
1207 2 64.0049 -0.688703 48.7408 -0.255094
1211 2 63.6634 -0.70991 47.2058 -0.106812
1218 1 63.4567 0.19265 44.672 0.110395
1210 1 63.3152 -1.27115 49.334 0.129442
1213 1 62.6409 -0.43773 47.077 0.0739199
1215 1 64.2407 1.31945 46.8383 0.102087
1209 1 63.9042 0.334583 49.0834 0.137908
1208 1 65.0086 -1.07364 48.9633 0.113544
1222 1 64.7984 2.36582 44.5648 0.0963798
1223 1 66.2988 1.45657 44.6325 0.147375
1216 1 65.6225 0.205187 46.804 0.135813
1253 3 67.214 1.98386 48.0751 -0.120561
1254 3 67.2099 2.48167 46.9219 -0.134548
1974 1 0.218854 5.79538 49.7431 0.0960233
1972 2 1.26016 5.7103 49.3854 -0.201228
1973 1 1.62518 4.68705 49.6983 0.0912268
1969 2 2.08397 6.89351 49.985 -0.10663
1975 1 1.204 5.76935 48.2578 0.0805319
1026 1 3.09912 6.887 49.6107 0.0753696
1966 2 1.30703 8.19703 49.5229 -0.124866
1968 1 1.25649 8.22951 48.4058 0.0798463
1967 1 0.27616 8.17348 49.934 0.0955284
1018 2 2.07617 9.42502 50.0457 -0.0213319
1020 1 3.02582 9.72061 49.6279 0.0644629